name,cid,CAS,smiles,molWeight,molFormula,logP,charge,pKa,sterimol_L,sterimol_B1,sterimol_B5,canonical_smiles
1-naphthalen-1-yloxy-3-(propan-2-ylamino)propan-2-ol,4946,525-66-6,CC(C)NCC(COC1=CC=CC2=CC=CC=C21)O,259.34,C16H21NO2,3.0,0,9.53,4.55,2.17,7.39,CC(C)NCC(O)COc1cccc2ccccc12
"2-[2-(4-benzo[b][1,4]benzothiazepin-6-ylpiperazin-1-yl)ethoxy]ethanol",5002,111974-69-7,C1CN(CCN1CCOCCO)C2=NC3=CC=CC=C3SC4=CC=CC=C42,383.5,C21H25N3O2S,2.1,0,7.06,10.08,2.39,12.52,OCCOCCN1CCN(C2=Nc3ccccc3Sc3ccccc32)CC1
"1-N'-[2-[[5-[(dimethylamino)methyl]furan-2-yl]methylsulfanyl]ethyl]-1-N-methyl-2-nitroethene-1,1-diamine",5039,66357-35-5,CNC(=C[N+](=O)[O-])NCCSCC1=CC=C(O1)CN(C)C,314.41,C13H22N4O3S,0.3,0,8.31,5.69,2.47,9.06,CNC(=C[N+](=O)[O-])NCCSCc1ccc(CN(C)C)o1
"3-[2-[4-(6-fluoro-1,2-benzoxazol-3-yl)piperidin-1-yl]ethyl]-2-methyl-6,7,8,9-tetrahydropyrido[1,2-a]pyrimidin-4-one",5073,106266-06-2,CC1=C(C(=O)N2CCCCC2=N1)CCN3CCC(CC3)C4=NOC5=C4C=CC(=C5)F,410.5,C23H27FN4O2,2.7,0,8.3,18.85,2.66,8.97,Cc1nc2n(c(=O)c1CCN1CCC(c3noc4cc(F)ccc34)CC1)CCCC2
[3-[1-(dimethylamino)ethyl]phenyl] N-ethyl-N-methylcarbamate,5077,105601-20-5,CCN(C)C(=O)OC1=CC=CC(=C1)C(C)N(C)C,250.34,C14H22N2O2,2.3,0,,7.24,2.13,6.61,CCN(C)C(=O)Oc1cccc(C(C)N(C)C)c1
2-hydroxybenzoic acid,338,69-72-7,C1=CC=C(C(=C1)C(=O)O)O,138.12,C7H6O3,2.3,0,2.78,6.74,1.8,5.46,O=C(O)c1ccccc1O
"4-(3,4-dichlorophenyl)-N-methyl-1,2,3,4-tetrahydronaphthalen-1-amine",5203,140631-53-4,CNC1CCC(C2=CC=CC=C12)C3=CC(=C(C=C3)Cl)Cl,306.2,C17H17Cl2N,4.8,0,8.0,7.19,2.45,8.66,CNC1CCC(c2ccc(Cl)c(Cl)c2)c2ccccc21
"5-[2-ethoxy-5-(4-methylpiperazin-1-yl)sulfonylphenyl]-1-methyl-3-propyl-6H-pyrazolo[4,3-d]pyrimidin-7-one",135398744,139755-83-2,CCCC1=NN(C2=C1N=C(NC2=O)C3=C(C=CC(=C3)S(=O)(=O)N4CCN(CC4)C)OCC)C,474.6,C22H30N6O4S,1.5,0,,3.37,2.46,10.78,CCCc1nn(C)c2c(=O)[nH]c(-c3cc(S(=O)(=O)N4CCN(C)CC4)ccc3OCC)nc12
styrene,7501,100-42-5,C=CC1=CC=CC=C1,104.15,C8H8,2.9,0,,4.68,1.7,4.46,C=Cc1ccccc1
trimethyl-[2-[4-oxo-4-[2-(trimethylazaniumyl)ethoxy]butanoyl]oxyethyl]azanium,5314,306-40-1,C[N+](C)(C)CCOC(=O)CCC(=O)OCC[N+](C)(C)C,290.4,C14H30N2O4+2,0.6,2,,6.58,3.14,8.0,C[N+](C)(C)CCOC(=O)CCC(=O)OCC[N+](C)(C)C
"2-[4-(1,2-diphenylbut-1-enyl)phenoxy]-N,N-dimethylethanamine",5376,7728-73-6,CCC(=C(C1=CC=CC=C1)C2=CC=C(C=C2)OCCN(C)C)C3=CC=CC=C3,371.5,C26H29NO,7.1,0,,13.14,3.26,5.7,CCC(=C(c1ccccc1)c1ccc(OCCN(C)C)cc1)c1ccccc1
2-(dimethylamino)ethyl 4-(butylamino)benzoate,5411,94-24-6,CCCCNC1=CC=C(C=C1)C(=O)OCCN(C)C,264.36,C15H24N2O2,3.7,0,8.49,6.51,2.2,4.64,CCCCNc1ccc(C(=O)OCCN(C)C)cc1
"4-(dimethylamino)-1,6,10,11,12a-pentahydroxy-6-methyl-3,12-dioxo-4,4a,5,5a-tetrahydrotetracene-2-carboxamide",54685734,60-54-8,CC1(C2CC3C(C(=O)C(=C(C3(C(=O)C2=C(C4=C1C=CC=C4O)O)O)O)C(=O)N)N(C)C)O,444.4,C22H24N2O8,-2.0,0,,10.89,4.57,6.19,CN(C)C1C(=O)C(C(N)=O)=C(O)C2(O)C(=O)C3=C(O)c4c(O)cccc4C(C)(O)C3CC12
"3,7-dimethylpurine-2,6-dione",5429,83-67-0,CN1C=NC2=C1C(=O)NC(=O)N2C,180.16,C7H8N4O2,-0.8,0,9.9,7.69,1.91,5.37,Cn1cnc2c1c(=O)[nH]c(=O)n2C
"1,3-dimethyl-7H-purine-2,6-dione",2153,58-55-9,CN1C2=C(C(=O)N(C1=O)C)NC=N2,180.16,C7H8N4O2,0.0,0,8.81,7.69,1.99,5.44,Cn1c(=O)c2[nH]cnc2n(C)c1=O
,140368,18282-77-4,C=C=S,58.1,C2H2S,1.4,0,,4.99,1.7,2.03,C=C=S
thionyl dichloride,24386,7719-09-7,O=S(Cl)Cl,118.97,Cl2OS,1.5,0,,4.49,1.8,3.73,O=S(Cl)Cl
"5-ethyl-5-pentan-2-yl-2-sulfanylidene-1,3-diazinane-4,6-dione",3000715,71-73-8,CCCC(C)C1(C(=O)NC(=S)NC1=O)CC,242.34,C11H18N2O2S,2.9,0,7.55,8.79,3.27,7.11,CCCC(C)C1(CC)C(=O)NC(=S)NC1=O
toluene,1140,108-88-3,CC1=CC=CC=C1,92.14,C7H8,2.7,0,,4.68,1.7,4.46,Cc1ccccc1
"2-[3-[4-(3-chlorophenyl)piperazin-1-yl]propyl]-[1,2,4]triazolo[4,3-a]pyridin-3-one",5533,19794-93-5,C1CN(CCN1CCCN2C(=O)N3C=CC=CC3=N2)C4=CC(=CC=C4)Cl,371.9,C19H22ClN5O,2.8,0,6.79,12.42,2.05,12.7,O=c1n(CCCN2CCN(c3cccc(Cl)c3)CC2)nc2ccccn12
"benzene-1,3,5-tricarboxylic acid",11138,554-95-0,C1=C(C=C(C=C1C(=O)O)C(=O)O)C(=O)O,210.14,C9H6O6,0.5,0,,8.1,1.7,7.59,O=C(O)c1cc(C(=O)O)cc(C(=O)O)c1
cyclopropane,6351,75-19-4,C1CC1,42.08,C3H6,1.6,0,,3.6,1.7,3.19,C1CC1
"1,3,5-trinitrobenzene",7434,99-35-4,C1=C(C=C(C=C1[N+](=O)[O-])[N+](=O)[O-])[N+](=O)[O-],213.1,C6H3N3O6,1.2,0,,7.98,1.6,7.48,O=[N+]([O-])c1cc([N+](=O)[O-])cc([N+](=O)[O-])c1
urea,1176,57-13-6,C(=O)(N)N,60.056,CH4N2O,-1.4,0,0.1,4.51,1.7,3.17,NC(N)=O
"7,9-dihydro-3H-purine-2,6,8-trione",1175,69-93-2,C12=C(NC(=O)N1)NC(=O)NC2=O,168.11,C5H4N4O3,-1.9,0,5.4,6.58,1.7,6.13,O=c1[nH]c(=O)c2[nH]c(=O)[nH]c2[nH]1
2-propylpentanoic acid,3121,99-66-1,CCCC(CCC)C(=O)O,144.21,C8H16O2,2.8,0,4.8,5.26,2.37,6.16,CCCC(CCC)C(=O)O
1-[2-(dimethylamino)-1-(4-methoxyphenyl)ethyl]cyclohexan-1-ol,5656,93413-69-5,CN(C)CC(C1=CC=C(C=C1)OC)C2(CCCCC2)O,277.4,C17H27NO2,2.9,0,9.5,5.62,3.72,8.44,COc1ccc(C(CN(C)C)C2(O)CCCCC2)cc1
4-hydroxy-3-(3-oxo-1-phenylbutyl)chromen-2-one,54678486,81-81-2,CC(=O)CC(C1=CC=CC=C1)C2=C(C3=CC=CC=C3OC2=O)O,308.3,C19H16O4,2.7,0,5.0,7.3,2.43,6.77,CC(=O)CC(c1ccccc1)c1c(O)c2ccccc2oc1=O
"1,2-xylene",7237,95-47-6,CC1=CC=CC=C1C,106.16,C8H10,3.1,0,,4.74,1.87,4.46,Cc1ccccc1C
"N,N-dimethyl-2-[6-methyl-2-(4-methylphenyl)imidazo[1,2-a]pyridin-3-yl]acetamide",5732,82626-48-0,CC1=CC=C(C=C1)C2=C(N3C=C(C=CC3=N2)C)CC(=O)N(C)C,307.4,C19H21N3O,2.5,0,5.65,5.56,3.64,8.79,Cc1ccc(-c2nc3ccc(C)cn3c2CC(=O)N(C)C)cc1
"[6-(5-chloropyridin-2-yl)-5-oxo-7H-pyrrolo[3,4-b]pyrazin-7-yl] 4-methylpiperazine-1-carboxylate",5735,43200-80-2,CN1CCN(CC1)C(=O)OC2C3=NC=CN=C3C(=O)N2C4=NC=C(C=C4)Cl,388.8,C17H17ClN6O3,0.5,0,,12.77,1.92,8.8,CN1CCN(C(=O)OC2c3nccnc3C(=O)N2c2ccc(Cl)cn2)CC1
aniline,6115,62-53-3,C1=CC=C(C=C1)N,93.13,C6H7N,0.9,0,4.6,6.79,1.7,3.26,Nc1ccccc1
3-hydroxybenzoic acid,7420,99-06-9,C1=CC(=CC(=C1)O)C(=O)O,138.12,C7H6O3,1.5,0,,7.51,1.7,5.11,O=C(O)c1cccc(O)c1
pyridine,1049,110-86-1,C1=CC=NC=C1,79.1,C5H5N,0.7,0,5.23,4.71,1.7,4.46,c1ccncc1
quinoline,7047,91-22-5,C1=CC=C2C(=C1)C=CC=N2,129.16,C9H7N,2.0,0,4.9,6.75,1.7,4.46,c1ccc2ncccc2c1
N-phenylacetamide,904,103-84-4,CC(=O)NC1=CC=CC=C1,135.16,C8H9NO,1.2,0,1.0,5.28,1.92,7.32,CC(=O)Nc1ccccc1
4-nitrophenol,980,100-02-7,C1=CC(=CC=C1[N+](=O)[O-])O,139.11,C6H5NO3,1.9,0,7.15,8.1,1.7,3.27,O=[N+]([O-])c1ccc(O)cc1
4-methylphenol,2879,106-44-5,CC1=CC=C(C=C1)O,108.14,C7H8O,1.9,0,10.3,7.74,1.7,3.26,Cc1ccc(O)cc1
3-hydroxy-4-methoxybenzaldehyde,12127,621-59-0,COC1=C(C=C(C=C1)C=O)O,152.15,C8H8O3,1.0,0,,8.19,1.82,3.91,COc1ccc(C=O)cc1O
oxalic acid,971,144-62-7,C(=O)(C(=O)O)O,90.03,C2H2O4,-0.3,0,1.0,5.11,1.7,3.91,O=C(O)C(=O)O
"2,3,4-trihydroxypentanedioic acid",109475,488-31-3,C(C(C(=O)O)O)(C(C(=O)O)O)O,180.11,C5H8O7,-2.5,0,,6.41,2.35,4.94,O=C(O)C(O)C(O)C(O)C(=O)O
"N,N-diethylethanamine",8471,121-44-8,CCN(CC)CC,101.19,C6H15N,1.4,0,10.9,4.58,2.58,4.43,CCN(CC)CC
N-methylmethanamine,674,124-40-3,CNC,45.08,C2H7N,-0.2,0,10.732,3.56,1.7,3.21,CNC
piperidine,8082,110-89-4,C1CCNCC1,85.15,C5H11N,0.8,0,11.12,4.62,1.96,4.55,C1CCNCC1