name,cid,CAS,smiles,molWeight,molFormula,logP,charge,pKa,sterimol_L,sterimol_B1,sterimol_B5,canonical_smiles
7-[(2-amino-2-phenylacetyl)amino]-3-methyl-8-oxo-5-thia-1-azabicyclo[4.2.0]oct-2-ene-2-carboxylic acid,2666,108260-04-4,CC1=C(N2C(C(C2=O)NC(=O)C(C3=CC=CC=C3)N)SC1)C(=O)O,347.4,C16H17N3O4S,0.6,0,,7.31,3.73,9.09,CC1=C(C(=O)O)N2C(=O)C(NC(=O)C(N)c3ccccc3)C2SC1
"1-methyl-2,4-dinitrobenzene",8461,121-14-2,CC1=C(C=C(C=C1)[N+](=O)[O-])[N+](=O)[O-],182.13,C7H6N2O4,2.0,0,,6.73,1.97,7.48,Cc1ccc([N+](=O)[O-])cc1[N+](=O)[O-]
"4-[1-hydroxy-2-(methylamino)ethyl]benzene-1,2-diol",838,329-65-7,CNCC(C1=CC(=C(C=C1)O)O)O,183.2,C9H13NO3,-1.4,0,,5.27,2.15,6.85,CNCC(O)c1ccc(O)c(O)c1
propanoic acid,1032,79-09-4,CCC(=O)O,74.08,C3H6O2,0.3,0,4.874,5.49,1.74,3.61,CCC(=O)O
ethanol,702,64-17-5,CCO,46.07,C2H6O,-0.1,0,15.9,4.51,1.7,3.26,CCO
"6-(hydroxymethyl)oxane-2,3,4,5-tetrol",206,492-62-6,C(C1C(C(C(C(O1)O)O)O)O)O,180.16,C6H12O6,-2.6,0,,5.29,2.39,5.26,OCC1OC(O)C(O)C(O)C1O
5-chloro-N-[2-[4-(cyclohexylcarbamoylsulfamoyl)phenyl]ethyl]-2-methoxybenzamide,3488,10238-21-8,COC1=C(C=C(C=C1)Cl)C(=O)NCCC2=CC=C(C=C2)S(=O)(=O)NC(=O)NC3CCCCC3,494.0,C23H28ClN3O5S,4.8,0,,9.1,2.9,10.46,COc1ccc(Cl)cc1C(=O)NCCc1ccc(S(=O)(=O)NC(=O)NC2CCCCC2)cc1
2-(trimethylazaniumyl)acetate,247,107-43-7,C[N+](C)(C)CC(=O)[O-],117.15,C5H11NO2,0.5,0,1.83,4.93,1.7,5.72,C[N+](C)(C)CC(=O)[O-]
but-2-enedioic acid,723,6915-18-0,C(=CC(=O)O)C(=O)O,116.07,C4H4O4,-0.3,0,,6.99,1.7,5.52,O=C(O)C=CC(=O)O
N-(4-hydroxyphenyl)acetamide,1983,103-90-2,CC(=O)NC1=CC=C(C=C1)O,151.16,C8H9NO2,0.5,0,9.38,10.0,1.96,3.81,CC(=O)Nc1ccc(O)cc1
prop-2-enoic acid,6581,79-10-7,C=CC(=O)O,72.06,C3H4O2,0.3,0,4.26,5.48,1.7,3.74,C=CC(=O)O
"1,2-dichloroethane",11,107-06-2,C(CCl)Cl,98.96,C2H4Cl2,1.5,0,,4.94,1.7,4.49,ClCCCl
acetic acid,176,64-19-7,CC(=O)O,60.05,C2H4O2,-0.2,0,4.756,4.48,1.7,3.22,CC(=O)O
propan-2-one,180,67-64-1,CC(=O)C,58.08,C3H6O,-0.1,0,20.0,4.15,1.99,3.24,CC(C)=O
7H-purin-6-amine,190,73-24-5,C1=NC2=NC=NC(=C2N1)N,135.13,C5H5N5,-0.1,0,4.15,6.43,1.7,4.14,Nc1ncnc2nc[nH]c12
"11-methoxy-6,8,19-trioxapentacyclo[10.7.0.02,9.03,7.013,17]nonadeca-1,4,9,11,13(17)-pentaene-16,18-dione",14403,408530-29-0,COC1=C2C3=C(C(=O)CC3)C(=O)OC2=C4C5C=COC5OC4=C1,312.27,C17H12O6,1.6,0,,4.87,1.87,10.18,COc1cc2c(c3oc(=O)c4c(c13)CCC4=O)C1C=COC1O2
2-aminopropanoic acid,602,302-72-7,CC(C(=O)O)N,89.09,C3H7NO2,-3.0,0,,5.3,1.7,4.52,CC(N)C(=O)O
"3,7-dimethyl-9-(2,6,6-trimethylcyclohexen-1-yl)nona-2,4,6,8-tetraenoic acid",5538,,CC1=C(C(CCC1)(C)C)C=CC(=CC=CC(=CC(=O)O)C)C,300.4,C20H28O2,6.3,0,,10.84,1.7,14.83,CC(C=CC1=C(C)CCCC1(C)C)=CC=CC(C)=CC(=O)O
"(2,5-dioxoimidazolidin-4-yl)urea",204,97-59-6,C1(C(=O)NC(=O)N1)NC(=O)N,158.12,C4H6N4O3,-2.2,0,,6.26,1.75,6.22,NC(=O)NC1NC(=O)NC1=O
3-prop-2-enylsulfinylsulfanylprop-1-ene,65036,539-86-6,C=CCSS(=O)CC=C,162.3,C6H10OS2,1.3,0,,7.13,2.64,5.64,C=CCSS(=O)CC=C
"1,5-dihydropyrazolo[3,4-d]pyrimidin-4-one",135401907,315-30-0,C1=NNC2=C1C(=O)NC=N2,136.11,C5H4N4O,-0.7,0,10.2,6.33,1.7,4.85,O=c1[nH]cnc2[nH]ncc12
"8-chloro-1-methyl-6-phenyl-4H-[1,2,4]triazolo[4,3-a][1,4]benzodiazepine",2118,28981-97-7,CC1=NN=C2N1C3=C(C=C(C=C3)Cl)C(=NC2)C4=CC=CC=C4,308.8,C17H13ClN4,2.1,0,,9.97,2.27,8.15,Cc1nnc2n1-c1ccc(Cl)cc1C(c1ccccc1)=NC2
"3,5-diamino-6-chloro-N-(diaminomethylidene)pyrazine-2-carboxamide",16231,2609-46-3,C1(=C(N=C(C(=N1)Cl)N)N)C(=O)N=C(N)N,229.63,C6H8ClN7O,-0.7,0,8.7,7.82,1.81,7.16,NC(N)=NC(=O)c1nc(Cl)c(N)nc1N
"(2-butyl-1-benzofuran-3-yl)-[4-[2-(diethylamino)ethoxy]-3,5-diiodophenyl]methanone",2157,1951-25-3,CCCCC1=C(C2=CC=CC=C2O1)C(=O)C3=CC(=C(C(=C3)I)OCCN(CC)CC)I,645.3,C25H29I2NO3,7.6,0,9.06,10.4,2.46,9.41,CCCCc1oc2ccccc2c1C(=O)c1cc(I)c(OCCN(CC)CC)c(I)c1
"6-[[2-amino-2-(4-hydroxyphenyl)acetyl]amino]-3,3-dimethyl-7-oxo-4-thia-1-azabicyclo[3.2.0]heptane-2-carboxylic acid",2171,26787-78-0,CC1(C(N2C(S1)C(C2=O)NC(=O)C(C3=CC=C(C=C3)O)N)C(=O)O)C,365.4,C16H19N3O5S,-2.0,0,,9.69,3.66,7.15,CC1(C)SC2C(NC(=O)C(N)c3ccc(O)cc3)C(=O)N2C1C(=O)O
1-phenylpropan-2-amine,3007,300-62-9,CC(CC1=CC=CC=C1)N,135.21,C9H13N,1.8,0,9.9,8.83,2.0,3.97,CC(N)Cc1ccccc1
"6-[(2-amino-2-phenylacetyl)amino]-3,3-dimethyl-7-oxo-4-thia-1-azabicyclo[3.2.0]heptane-2-carboxylic acid",2174,69-53-4,CC1(C(N2C(S1)C(C2=O)NC(=O)C(C3=CC=CC=C3)N)C(=O)O)C,349.4,C16H19N3O4S,-1.1,0,,8.92,3.66,7.04,CC1(C)SC2C(NC(=O)C(N)c3ccccc3)C(=O)N2C1C(=O)O
1-methoxy-4-prop-1-enylbenzene,7703,104-46-1,CC=CC1=CC=C(C=C1)OC,148.2,C10H12O,3.3,0,,9.99,1.82,3.28,CC=Cc1ccc(OC)cc1
anthracene,8418,120-12-7,C1=CC=C2C=C3C=CC=CC3=CC2=C1,178.23,C14H10,4.4,0,,4.69,1.7,6.92,c1ccc2cc3ccccc3cc2c1
"1,5-dimethyl-2-phenylpyrazol-3-one",2206,60-80-0,CC1=CC(=O)N(N1C)C2=CC=CC=C2,188.23,C11H12N2O,0.4,0,1.4,6.94,2.3,7.33,Cc1cc(=O)n(-c2ccccc2)n1C
"5,7-dihydroxy-2-(4-hydroxyphenyl)chromen-4-one",5280443,520-36-5,C1=CC(=CC=C1C2=CC(=O)C3=C(C=C(C=C3O2)O)O)O,270.24,C15H10O5,1.7,0,,6.74,1.97,5.05,O=c1cc(-c2ccc(O)cc2)oc2cc(O)cc(O)c12
"2-(hydroxymethyl)-6-(4-hydroxyphenoxy)oxane-3,4,5-triol",346,497-76-7,C1=CC(=CC=C1O)OC2C(C(C(C(O2)CO)O)O)O,272.25,C12H16O7,-0.7,0,,5.29,3.34,6.64,OCC1OC(Oc2ccc(O)cc2)C(O)C(O)C1O
2-amino-5-(diaminomethylideneamino)pentanoic acid,232,1119-34-2,C(CC(C(=O)O)N)CN=C(N)N,174.2,C6H14N4O2,-4.2,0,,5.33,1.8,8.99,NC(N)=NCCCC(N)C(=O)O
"2,4-diamino-4-oxobutanoic acid",236,3130-87-8,C(C(C(=O)O)N)C(=O)N,132.12,C4H8N2O3,-3.4,0,,5.34,2.04,5.03,NC(=O)CC(N)C(=O)O
3-amino-4-[(1-methoxy-1-oxo-3-phenylpropan-2-yl)amino]-4-oxobutanoic acid,2242,25548-16-7,COC(=O)C(CC1=CC=CC=C1)NC(=O)C(CC(=O)O)N,294.3,C14H18N2O5,-2.7,0,,8.91,2.8,7.28,COC(=O)C(Cc1ccccc1)NC(=O)C(N)CC(=O)O
2-acetyloxybenzoic acid,2244,50-78-2,CC(=O)OC1=CC=CC=C1C(=O)O,180.16,C9H8O4,1.2,0,3.47,6.74,1.8,5.46,CC(=O)Oc1ccccc1C(=O)O
"7-[2-(4-fluorophenyl)-3-phenyl-4-(phenylcarbamoyl)-5-propan-2-ylpyrrol-1-yl]-3,5-dihydroxyheptanoic acid",2250,,CC(C)C1=C(C(=C(N1CCC(CC(CC(=O)O)O)O)C2=CC=C(C=C2)F)C3=CC=CC=C3)C(=O)NC4=CC=CC=C4,558.6,C33H35FN2O5,5.0,0,,15.6,3.27,8.65,CC(C)c1c(C(=O)Nc2ccccc2)c(-c2ccccc2)c(-c2ccc(F)cc2)n1CCC(O)CC(O)CC(=O)O
(8-methyl-8-azabicyclo[3.2.1]octan-3-yl) 3-hydroxy-2-phenylpropanoate,3661,101-31-5,CN1C2CCC1CC(C2)OC(=O)C(CO)C3=CC=CC=C3,289.4,C17H23NO3,1.8,0,,7.14,3.63,5.7,CN1C2CCC1CC(OC(=O)C(CO)c1ccccc1)C2
diphenyldiazene,2272,103-33-3,C1=CC=C(C=C1)N=NC2=CC=CC=C2,182.22,C12H10N2,3.8,0,2.95,4.79,3.25,6.06,c1ccc(N=Nc2ccccc2)cc1
"2-[[1-(2-amino-1,3-thiazol-4-yl)-2-[(2-methyl-4-oxo-1-sulfoazetidin-3-yl)amino]-2-oxoethylidene]amino]oxy-2-methylpropanoic acid",2274,,CC1C(C(=O)N1S(=O)(=O)O)NC(=O)C(=NOC(C)(C)C(=O)O)C2=CSC(=N2)N,435.4,C13H17N5O8S2,0.3,0,,5.75,2.12,11.57,CC1C(NC(=O)C(=NOC(C)(C)C(=O)O)c2csc(N)n2)C(=O)N1S(=O)(=O)O
4-amino-3-(4-chlorophenyl)butanoic acid,2284,1134-47-0,C1=CC(=CC=C1C(CC(=O)O)CN)Cl,213.66,C10H12ClNO2,-1.0,0,9.62,9.92,2.85,5.54,NCC(CC(=O)O)c1ccc(Cl)cc1
5-[[4-(2-carboxyethylcarbamoyl)phenyl]diazenyl]-2-hydroxybenzoic acid,54585,80573-04-2,C1=CC(=CC=C1C(=O)NCCC(=O)O)N=NC2=CC(=C(C=C2)O)C(=O)O,357.32,C17H15N3O6,2.2,0,,8.9,2.11,12.99,O=C(O)CCNC(=O)c1ccc(N=Nc2ccc(O)c(C(=O)O)c2)cc1
"1,3-diazinane-2,4,6-trione",6211,4390-16-3,C1C(=O)NC(=O)NC1=O,128.09,C4H4N2O3,-1.5,0,,6.57,1.82,3.87,O=C1CC(=O)NC(=O)N1
benzaldehyde,240,100-52-7,C1=CC=C(C=C1)C=O,106.12,C7H6O,1.5,0,14.9,6.77,1.7,5.7,O=Cc1ccccc1
benzene,241,71-43-2,C1=CC=CC=C1,78.11,C6H6,2.1,0,,4.68,1.7,4.46,c1ccccc1
benzo[a]pyrene,2336,50-32-8,C1=CC=C2C3=C4C(=CC2=C1)C=CC5=C4C(=CC=C5)C=C3,252.3,C20H12,6.0,0,,6.82,1.7,4.49,c1ccc2c(c1)cc1ccc3cccc4ccc2c1c34
benzoic acid,243,65-85-0,C1=CC=C(C=C1)C(=O)O,122.12,C7H6O2,1.9,0,4.207,6.41,1.7,6.02,O=C(O)c1ccccc1
diphenylmethanone,3102,119-61-9,C1=CC=C(C=C1)C(=O)C2=CC=CC=C2,182.22,C13H10O,3.4,0,,6.65,1.7,5.84,O=C(c1ccccc1)c1ccccc1
phenylmethanol,244,100-51-6,C1=CC=C(C=C1)CO,108.14,C7H8O,1.1,0,15.4,4.94,1.7,6.16,OCc1ccccc1
chloromethylbenzene,7503,100-44-7,C1=CC=C(C=C1)CCl,126.58,C7H7Cl,2.3,0,,5.39,1.7,6.12,ClCc1ccccc1
"16,17-dimethoxy-5,7-dioxa-13-azoniapentacyclo[11.8.0.02,10.04,8.015,20]henicosa-1(13),2,4(8),9,14,16,18,20-octaene",2353,2086-83-1,COC1=C(C2=C[N+]3=C(C=C2C=C1)C4=CC5=C(C=C4CC3)OCO5)OC,336.4,C20H18NO4+,3.6,1,,15.04,2.58,5.19,COc1ccc2cc3[n+](cc2c1OC)CCc1cc2c(cc1-3)OCO2
3-[2-[[3-(2-carboxyethyl)-5-[(3-ethenyl-4-methyl-5-oxopyrrol-2-ylidene)methyl]-4-methyl-1H-pyrrol-2-yl]methyl]-5-[(4-ethenyl-3-methyl-5-oxopyrrol-2-ylidene)methyl]-4-methyl-1H-pyrrol-3-yl]propanoic acid,250,,CC1=C(NC(=C1CCC(=O)O)CC2=C(C(=C(N2)C=C3C(=C(C(=O)N3)C)C=C)C)CCC(=O)O)C=C4C(=C(C(=O)N4)C=C)C,584.7,C33H36N4O6,2.9,0,,8.63,2.04,13.81,C=CC1=C(C)C(=Cc2[nH]c(Cc3[nH]c(C=C4NC(=O)C(C)=C4C=C)c(C)c3CCC(=O)O)c(CCC(=O)O)c2C)NC1=O
"5-(2-oxo-1,3,3a,4,6,6a-hexahydrothieno[3,4-d]imidazol-4-yl)pentanoic acid",253,58-85-5,C1C2C(C(S1)CCCCC(=O)O)NC(=O)N2,244.31,C10H16N2O3S,0.3,0,,5.16,2.13,9.39,O=C(O)CCCCC1SCC2NC(=O)NC21
4-[2-(4-hydroxyphenyl)propan-2-yl]phenol,6623,80-05-7,CC(C)(C1=CC=C(C=C1)O)C2=CC=C(C=C2)O,228.29,C15H16O2,3.3,0,9.6,9.72,2.92,6.84,CC(C)(c1ccc(O)cc1)c1ccc(O)cc1
bromobenzene,7961,108-86-1,C1=CC=C(C=C1)Br,157.01,C6H5Br,3.0,0,,7.27,1.7,3.26,Brc1ccccc1
2-(tert-butylamino)-1-(3-chlorophenyl)propan-1-one,444,34911-55-2,CC(C(=O)C1=CC(=CC=C1)Cl)NC(C)(C)C,239.74,C13H18ClNO,3.2,0,8.35,7.58,1.87,9.01,CC(NC(C)(C)C)C(=O)c1cccc(Cl)c1
butan-1-ol,263,71-36-3,CCCCO,74.12,C4H10O,0.9,0,16.1,6.52,1.7,4.71,CCCCO
butanoic acid,264,107-92-6,CCCC(=O)O,88.11,C4H8O2,0.8,0,4.82,6.67,1.71,4.57,CCCC(=O)O
"1,3,7-trimethylpurine-2,6-dione",2519,58-08-2,CN1C=NC2=C1C(=O)N(C(=O)N2C)C,194.19,C8H10N4O2,-0.1,0,14.0,7.7,1.99,5.43,Cn1c(=O)c2c(ncn2C)n(C)c1=O
"1,7,7-trimethylbicyclo[2.2.1]heptan-2-one",2537,464-48-2,CC1(C2CCC1(C(=O)C2)C)C,152.23,C10H16O,2.2,0,,6.93,2.94,4.48,CC12CCC(CC1=O)C2(C)C
1-(2-methyl-3-sulfanylpropanoyl)pyrrolidine-2-carboxylic acid,2550,,CC(CS)C(=O)N1CCCC1C(=O)O,217.29,C9H15NO3S,0.3,0,,6.01,1.7,8.18,CC(CS)C(=O)N1CCCC1C(=O)O
1-[3-[[3-(2-carboxypyrrolidin-1-yl)-2-methyl-3-oxopropyl]disulfanyl]-2-methylpropanoyl]pyrrolidine-2-carboxylic acid,12797285,,CC(CSSCC(C)C(=O)N1CCCC1C(=O)O)C(=O)N2CCCC2C(=O)O,432.6,C18H28N2O6S2,1.1,0,,5.1,2.04,9.98,CC(CSSCC(C)C(=O)N1CCCC1C(=O)O)C(=O)N1CCCC1C(=O)O
benzo[b][1]benzazepine-11-carboxamide,2554,298-46-4,C1=CC=C2C(=C1)C=CC3=CC=CC=C3N2C(=O)N,236.27,C15H12N2O,2.5,0,15.96,8.82,2.19,7.06,NC(=O)N1c2ccccc2C=Cc2ccccc21
"(2,2-dimethyl-3H-1-benzofuran-7-yl) N-methylcarbamate",2566,1563-66-2,CC1(CC2=C(O1)C(=CC=C2)OC(=O)NC)C,221.25,C12H15NO3,2.3,0,,4.51,2.85,6.21,CNC(=O)Oc1cccc2c1OC(C)(C)C2
carbonate,19660,3812-32-6,C(=O)([O-])[O-],60.009,CO3-2,1.2,-2,,3.85,1.7,2.64,O=C([O-])[O-]
"benzene-1,2-diol",289,120-80-9,C1=CC=C(C(=C1)O)O,110.11,C6H6O2,0.9,0,9.45,6.74,1.7,4.22,Oc1ccccc1O
"3-(acetyloxymethyl)-7-[[2-(2-amino-1,3-thiazol-4-yl)-2-methoxyiminoacetyl]amino]-8-oxo-5-thia-1-azabicyclo[4.2.0]oct-2-ene-2-carboxylic acid",2632,,CC(=O)OCC1=C(N2C(C(C2=O)NC(=O)C(=NOC)C3=CSC(=N3)N)SC1)C(=O)O,455.5,C16H17N5O7S2,-1.4,0,,11.39,3.98,8.88,CON=C(C(=O)NC1C(=O)N2C(C(=O)O)=C(COC(C)=O)CSC12)c1csc(N)n1
"7-[[2-(2-amino-1,3-thiazol-4-yl)-2-methoxyiminoacetyl]amino]-3-[(2-methyl-5,6-dioxo-1H-1,2,4-triazin-3-yl)sulfanylmethyl]-8-oxo-5-thia-1-azabicyclo[4.2.0]oct-2-ene-2-carboxylic acid",2657,,CN1C(=NC(=O)C(=O)N1)SCC2=C(N3C(C(C3=O)NC(=O)C(=NOC)C4=CSC(=N4)N)SC2)C(=O)O,554.6,C18H18N8O7S3,-1.3,0,,10.76,3.7,8.68,CON=C(C(=O)NC1C(=O)N2C(C(=O)O)=C(CSc3nc(=O)c(=O)[nH]n3C)CSC12)c1csc(N)n1
4-[5-(4-methylphenyl)-3-(trifluoromethyl)pyrazol-1-yl]benzenesulfonamide,2662,169590-42-5,CC1=CC=C(C=C1)C2=CC(=NN2C3=CC=C(C=C3)S(=O)(=O)N)C(F)(F)F,381.4,C17H14F3N3O2S,3.4,0,11.1,3.38,2.26,11.42,Cc1ccc(-c2cc(C(F)(F)F)nn2-c2ccc(S(N)(=O)=O)cc2)cc1
2-[2-[4-[(4-chlorophenyl)-phenylmethyl]piperazin-1-yl]ethoxy]acetic acid,2678,83881-51-0,C1CN(CCN1CCOCC(=O)O)C(C2=CC=CC=C2)C3=CC=C(C=C3)Cl,388.9,C21H25ClN2O3,1.7,0,1.52,15.57,2.79,10.38,O=C(O)COCCN1CCN(C(c2ccccc2)c2ccc(Cl)cc2)CC1
"2,2-dichloro-N-[1,3-dihydroxy-1-(4-nitrophenyl)propan-2-yl]acetamide",298,126787-77-7,C1=CC(=CC=C1C(C(CO)NC(=O)C(Cl)Cl)O)[N+](=O)[O-],323.13,C11H12Cl2N2O5,1.1,0,,9.91,1.94,10.64,O=C(NC(CO)C(O)c1ccc([N+](=O)[O-])cc1)C(Cl)Cl
2-[6-[[amino-[[amino-(4-chloroanilino)methylidene]amino]methylidene]amino]hexyl]-1-[amino-(4-chloroanilino)methylidene]guanidine,2713,55-56-1,C1=CC(=CC=C1NC(=NC(=NCCCCCCN=C(N)N=C(N)NC2=CC=C(C=C2)Cl)N)N)Cl,505.4,C22H30Cl2N10,0.1,0,,13.49,1.7,15.71,NC(=NCCCCCCN=C(N)N=C(N)Nc1ccc(Cl)cc1)N=C(N)Nc1ccc(Cl)cc1
chloro hypochlorite,24646,7791-21-1,O(Cl)Cl,86.9,Cl2O,1.6,0,,4.41,1.52,3.32,ClOCl
chloro(difluoro)methane,6372,75-45-6,C(F)(F)Cl,86.47,CHClF2,1.8,0,,4.1,1.81,2.74,FC(F)Cl
chlorobenzene,7964,108-90-7,C1=CC=C(C=C1)Cl,112.55,C6H5Cl,2.9,0,,7.1,1.7,3.26,Clc1ccccc1
"4-N-(7-chloroquinolin-4-yl)-1-N,1-N-diethylpentane-1,4-diamine",2719,54-05-7,CCN(CC)CCCC(C)NC1=C2C=CC(=CC2=NC=C1)Cl,319.9,C18H26ClN3,4.6,0,10.1,12.31,2.17,7.64,CCN(CC)CCCC(C)Nc1ccnc2cc(Cl)ccc12
2-hydroxyethyl(trimethyl)azanium,305,62-49-7,C[N+](C)(C)CCO,104.17,C5H14NO+,-0.4,1,,6.57,1.7,4.58,C[N+](C)(C)CCO
(5-ethenyl-1-azabicyclo[2.2.2]octan-2-yl)-quinolin-4-ylmethanol,2757,485-71-2,C=CC1CN2CCC1CC2C(C3=CC=NC4=CC=CC=C34)O,294.4,C19H22N2O,2.7,0,,6.56,3.49,7.48,C=CC1CN2CCC1CC2C(O)c1ccnc2ccccc12
3-phenylprop-2-enal,307,104-55-2,C1=CC=C(C=C1)C=CC=O,132.16,C9H8O,1.9,0,,8.96,1.7,6.81,O=CC=Cc1ccccc1
3-phenylprop-2-enoic acid,8784,621-82-9,C1=CC=C(C=C1)C=CC(=O)O,148.16,C9H8O2,2.1,0,,8.08,1.7,7.64,O=C(O)C=Cc1ccccc1
1-cyclopropyl-6-fluoro-4-oxo-7-piperazin-1-ylquinoline-3-carboxylic acid,2764,85721-33-1,C1CC1N2C=C(C(=O)C3=CC(=C(C=C32)N4CCNCC4)F)C(=O)O,331.34,C17H18FN3O3,-1.1,0,6.16,9.87,2.59,6.8,O=C(O)c1cn(C2CC2)c2cc(N3CCNCC3)c(F)cc2c1=O
"3,7-dimethylocta-2,6-dienal",8843,5392-40-5,CC(=CCCC(=CC=O)C)C,152.23,C10H16O,3.0,0,,9.23,2.01,5.6,CC(C)=CCCC(C)=CC=O
"2-hydroxypropane-1,2,3-tricarboxylic acid",311,77-92-9,C(C(=O)O)C(CC(=O)O)(C(=O)O)O,192.12,C6H8O7,-1.7,0,2.79,5.13,2.87,5.62,O=C(O)CC(O)(CC(=O)O)C(=O)O
2-[2-[1-(4-chlorophenyl)-1-phenylethoxy]ethyl]-1-methylpyrrolidine,2781,,CC(C1=CC=CC=C1)(C2=CC=C(C=C2)Cl)OCCC3CCCN3C,343.9,C21H26ClNO,5.0,0,,10.0,3.2,8.47,CN1CCCC1CCOC(C)(c1ccccc1)c1ccc(Cl)cc1
"5-(2-chlorophenyl)-7-nitro-1,3-dihydro-1,4-benzodiazepin-2-one",2802,1622-61-3,C1C(=O)NC2=C(C=C(C=C2)[N+](=O)[O-])C(=N1)C3=CC=CC=C3Cl,315.71,C15H10ClN3O3,2.4,0,1.0,7.1,2.04,8.44,O=C1CN=C(c2ccccc2Cl)c2cc([N+](=O)[O-])ccc2N1
"methyl 2-(2-chlorophenyl)-2-(6,7-dihydro-4H-thieno[3,2-c]pyridin-5-yl)acetate",2806,90055-48-4,COC(=O)C(C1=CC=CC=C1Cl)N2CCC3=C(C2)C=CS3,321.8,C16H16ClNO2S,3.8,0,,7.1,2.48,9.21,COC(=O)C(c1ccccc1Cl)N1CCc2sccc2C1
"3-chloro-6-(4-methylpiperazin-1-yl)-11H-benzo[b][1,4]benzodiazepine",135398737,5786-21-0,CN1CCN(CC1)C2=NC3=C(C=CC(=C3)Cl)NC4=CC=CC=C42,326.8,C18H19ClN4,3.1,0,7.9,10.96,1.93,10.01,CN1CCN(C2=Nc3cc(Cl)ccc3Nc3ccccc32)CC1
methyl 3-benzoyloxy-8-methyl-8-azabicyclo[3.2.1]octane-2-carboxylate,2826,,CN1C2CCC1C(C(C2)OC(=O)C3=CC=CC=C3)C(=O)OC,303.35,C17H21NO4,2.3,0,,7.11,2.73,6.74,COC(=O)C1C(OC(=O)c2ccccc2)CC2CCC1N2C
"9-methoxy-3-methyl-2,4,4a,7,7a,13-hexahydro-1H-4,12-methanobenzofuro[3,2-e]isoquinolin-7-ol",2828,76-57-3,CN1CCC23C4C1CC5=C2C(=C(C=C5)OC)OC3C(C=C4)O,299.4,C18H21NO3,1.1,0,,5.91,2.14,7.14,COc1ccc2c3c1OC1C(O)C=CC4C(C2)N(C)CCC341
2-propylpiperidine,9985,3238-60-6,CCCC1CCCCN1,127.23,C8H17N,2.0,0,,4.61,2.59,5.77,CCCC1CCCCN1
chromen-2-one,323,91-64-5,C1=CC=C2C(=C1)C=CC(=O)O2,146.14,C9H6O2,1.4,0,,6.76,1.7,4.48,O=c1ccc2ccccc2o1
2-[carbamimidoyl(methyl)amino]acetic acid,586,57-00-1,CN(CC(=O)O)C(=N)N,131.13,C4H9N3O2,-1.2,0,1.0,7.54,2.09,4.51,CN(CC(=O)O)C(=N)N
2-imino-1-methylimidazolidin-4-one,137319715,60-27-5,CN1CC(=O)NC1=N,113.12,C4H7N3O,-0.8,0,,6.85,1.78,3.64,CN1CC(=O)NC1=N
but-2-enoic acid,19499,3724-65-0,CC=CC(=O)O,86.09,C4H6O2,0.7,0,,5.93,1.7,4.87,CC=CC(=O)O
"1,7-bis(4-hydroxy-3-methoxyphenyl)hepta-1,6-diene-3,5-dione",2889,458-37-7,COC1=C(C=CC(=C1)C=CC(=O)CC(=O)C=CC2=CC(=C(C=C2)O)OC)O,368.4,C21H20O6,3.2,0,,17.76,2.04,6.51,COc1cc(C=CC(=O)CC(=O)C=Cc2ccc(O)c(OC)c2)ccc1O
"1,3,5-triazinane-2,4,6-trione",7956,108-80-5,C1(=O)NC(=O)NC(=O)N1,129.07,C3H3N3O3,-1.2,0,1.0,6.53,1.7,3.83,O=c1[nH]c(=O)[nH]c(=O)[nH]1
"N,N-dimethyl-3-(2-tricyclo[9.4.0.03,8]pentadeca-1(15),3,5,7,9,11,13-heptaenylidene)propan-1-amine",2895,303-53-7,CN(C)CCC=C1C2=CC=CC=C2C=CC3=CC=CC=C31,275.4,C20H21N,5.2,0,9.69,5.32,2.78,9.28,CN(C)CCC=C1c2ccccc2C=Cc2ccccc21
"N,N-bis(2-chloroethyl)-2-oxo-1,3,2lambda5-oxazaphosphinan-2-amine",2907,50-18-0,C1CNP(=O)(OC1)N(CCCl)CCCl,261.08,C7H15Cl2N2O2P,0.6,0,,9.1,1.73,6.39,O=P1(N(CCCl)CCCl)NCCCO1
2-amino-3-sulfanylpropanoic acid,594,3374-22-9,C(C(C(=O)O)N)S,121.16,C3H7NO2S,-2.5,0,,5.03,1.7,5.0,NC(CS)C(=O)O
6-amino-1H-pyrimidin-2-one,597,71-30-7,C1=C(NC(=O)N=C1)N,111.1,C4H5N3O,-1.7,0,,6.6,1.7,4.47,Nc1ccnc(=O)[nH]1
4-(4-aminophenyl)sulfonylaniline,2955,80-08-0,C1=CC(=CC=C1N)S(=O)(=O)C2=CC=C(C=C2)N,248.3,C12H12N2O2S,1.0,0,2.41,3.38,2.51,7.52,Nc1ccc(S(=O)(=O)c2ccc(N)cc2)cc1
decanoic acid,2969,334-48-5,CCCCCCCCCC(=O)O,172.26,C10H20O2,4.1,0,4.9,12.83,1.72,9.09,CCCCCCCCCC(=O)O
"7-chloro-4-(dimethylamino)-1,6,10,11,12a-pentahydroxy-3,12-dioxo-4a,5,5a,6-tetrahydro-4H-tetracene-2-carboxamide",54680103,127-33-3,CN(C)C1C2CC3C(C4=C(C=CC(=C4C(=C3C(=O)C2(C(=C(C1=O)C(=O)N)O)O)O)O)Cl)O,464.9,C21H21ClN2O8,0.7,0,,8.07,2.05,11.78,CN(C)C1C(=O)C(C(N)=O)=C(O)C2(O)C(=O)C3=C(O)c4c(O)ccc(Cl)c4C(O)C3CC12
"13-chloro-2-piperidin-4-ylidene-4-azatricyclo[9.4.0.03,8]pentadeca-1(11),3(8),4,6,12,14-hexaene",124087,100643-71-8,C1CC2=C(C=CC(=C2)Cl)C(=C3CCNCC3)C4=C1C=CC=N4,310.8,C19H19ClN2,4.5,0,,11.25,2.77,5.65,Clc1ccc2c(c1)CCc1cccnc1C2=C1CCNCC1
"4-methoxy-17-methyl-17-azatetracyclo[7.5.3.01,10.02,7]heptadeca-2(7),3,5-triene",3008,510-53-2,CN1CCC23CCCCC2C1CC4=C3C=C(C=C4)OC,271.4,C18H25NO,3.4,0,,9.84,2.41,6.27,COc1ccc2c(c1)C13CCCCC1C(C2)N(C)CC3
"7-chloro-1-methyl-5-phenyl-3H-1,4-benzodiazepin-2-one",3016,439-14-5,CN1C(=O)CN=C(C2=C1C=CC(=C2)Cl)C3=CC=CC=C3,284.74,C16H13ClN2O,3.0,0,3.4,9.93,2.28,8.2,CN1C(=O)CN=C(c2ccccc2)c2cc(Cl)ccc21
dichloro(difluoro)methane,6391,75-71-8,C(F)(F)(Cl)Cl,120.91,CCl2F2,2.3,0,,4.56,2.14,3.39,FC(F)(Cl)Cl
"2-[2-(2,6-dichloroanilino)phenyl]acetic acid",3033,15307-86-5,C1=CC=C(C(=C1)CC(=O)O)NC2=C(C=CC=C2Cl)Cl,296.1,C14H11Cl2NO2,4.4,0,3.99,7.1,2.08,8.39,O=C(O)Cc1ccccc1Nc1c(Cl)cccc1Cl
"diethyl benzene-1,2-dicarboxylate",6781,84-66-2,CCOC(=O)C1=CC=CC=C1C(=O)OCC,222.24,C12H14O4,2.5,0,,5.02,2.59,8.29,CCOC(=O)c1ccccc1C(=O)OCC
"[5-[2-(dimethylamino)ethyl]-2-(4-methoxyphenyl)-4-oxo-2,3-dihydro-1,5-benzothiazepin-3-yl] acetate",3076,34933-06-7,CC(=O)OC1C(SC2=CC=CC=C2N(C1=O)CCN(C)C)C3=CC=C(C=C3)OC,414.5,C22H26N2O4S,3.1,0,,5.89,3.01,8.62,COc1ccc(C2Sc3ccccc3N(CCN(C)C)C(=O)C2OC(C)=O)cc1
2-dimethoxyphosphinothioylsulfanyl-N-methylacetamide,3082,60-51-5,CNC(=O)CSP(=S)(OC)OC,229.3,C5H12NO3PS2,0.8,0,,5.27,3.09,4.65,CNC(=O)CSP(=S)(OC)OC
methylsulfanylmethane,1068,75-18-3,CSC,62.14,C2H6S,0.9,0,,3.91,1.7,3.51,CSC
methylsulfinylmethane,679,67-68-5,CS(=O)C,78.14,C2H6OS,-0.6,0,35.1,3.42,1.52,3.51,CS(C)=O
"2,4-dinitrophenol",1493,51-28-5,C1=CC(=C(C=C1[N+](=O)[O-])[N+](=O)[O-])O,184.11,C6H4N2O5,1.7,0,4.09,8.12,1.7,5.02,O=[N+]([O-])c1ccc(O)c([N+](=O)[O-])c1
"2-benzhydryloxy-N,N-dimethylethanamine",3100,58-73-1,CN(C)CCOC(C1=CC=CC=C1)C2=CC=CC=C2,255.35,C17H21NO,3.3,0,9.1,6.18,3.57,6.14,CN(C)CCOC(c1ccccc1)c1ccccc1
"2-[[2-[bis(2-hydroxyethyl)amino]-4,8-di(piperidin-1-yl)pyrimido[5,4-d]pyrimidin-6-yl]-(2-hydroxyethyl)amino]ethanol",3108,58-32-2,C1CCN(CC1)C2=NC(=NC3=C2N=C(N=C3N4CCCCC4)N(CCO)CCO)N(CCO)CCO,504.6,C24H40N8O4,0.7,0,,9.55,1.95,12.36,OCCN(CCO)c1nc(N2CCCCC2)c2nc(N(CCO)CCO)nc(N3CCCCC3)c2n1
"4-(2-aminoethyl)benzene-1,2-diol",681,51-61-6,C1=CC(=C(C=C1CCN)O)O,153.18,C8H11NO2,-1.0,0,8.93,7.53,1.7,6.18,NCCc1ccc(O)c(O)c1
"6,6,9-trimethyl-3-pentyl-6a,7,8,10a-tetrahydrobenzo[c]chromen-1-ol",2978,16849-50-6,CCCCCC1=CC(=C2C3C=C(CCC3C(OC2=C1)(C)C)C)O,314.5,C21H30O2,7.0,0,,5.07,3.0,7.5,CCCCCc1cc(O)c2c(c1)OC(C)(C)C1CCC(C)=CC21
N-methyl-3-naphthalen-1-yloxy-3-thiophen-2-ylpropan-1-amine,122252,116817-13-1,CNCCC(C1=CC=CS1)OC2=CC=CC3=CC=CC=C32,297.4,C18H19NOS,4.3,0,,5.9,3.74,8.4,CNCCC(Oc1cccc2ccccc12)c1cccs1
"1-[2-[(4-chlorophenyl)methoxy]-2-(2,4-dichlorophenyl)ethyl]imidazole",3198,27220-47-9,C1=CC(=CC=C1COC(CN2C=CN=C2)C3=C(C=C(C=C3)Cl)Cl)Cl,381.7,C18H15Cl3N2O,5.3,0,,7.1,2.44,10.9,Clc1ccc(COC(Cn2ccnc2)c2ccc(Cl)cc2Cl)cc1